 CRYSTAL
 PRIMVEC
.0000000 5.1306085 5.1306085
5.1306085 .0000000 5.1306085
5.1306085 5.1306085 .0000000
 PRIMCOORD
           2  1
  14  1.2826521 1.2826521 1.2826521
  11  -1.2826521 -1.3339582 -1.3339582
 
